+ 0.1 4 0 cbr 1000 ------- 1 4.0 5.0 0 0
- 0.1 4 0 cbr 1000 ------- 1 4.0 5.0 0 0
+ 0.108 4 0 cbr 1000 ------- 1 4.0 5.0 1 1
- 0.108 4 0 cbr 1000 ------- 1 4.0 5.0 1 1
r 0.115333 4 0 cbr 1000 ------- 1 4.0 5.0 0 0
+ 0.115333 0 1 cbr 1000 ------- 1 4.0 5.0 0 0
- 0.115333 0 1 cbr 1000 ------- 1 4.0 5.0 0 0
+ 0.116 4 0 cbr 1000 ------- 1 4.0 5.0 2 2
- 0.116 4 0 cbr 1000 ------- 1 4.0 5.0 2 2
r 0.123333 4 0 cbr 1000 ------- 1 4.0 5.0 1 1
+ 0.123333 0 1 cbr 1000 ------- 1 4.0 5.0 1 1
- 0.123333 0 1 cbr 1000 ------- 1 4.0 5.0 1 1
+ 0.124 4 0 cbr 1000 ------- 1 4.0 5.0 3 3
- 0.124 4 0 cbr 1000 ------- 1 4.0 5.0 3 3
r 0.131333 4 0 cbr 1000 ------- 1 4.0 5.0 2 2
+ 0.131333 0 1 cbr 1000 ------- 1 4.0 5.0 2 2
- 0.131333 0 1 cbr 1000 ------- 1 4.0 5.0 2 2
+ 0.132 4 0 cbr 1000 ------- 1 4.0 5.0 4 4
- 0.132 4 0 cbr 1000 ------- 1 4.0 5.0 4 4
r 0.139333 0 1 cbr 1000 ------- 1 4.0 5.0 0 0
+ 0.139333 1 5 cbr 1000 ------- 1 4.0 5.0 0 0
- 0.139333 1 5 cbr 1000 ------- 1 4.0 5.0 0 0
r 0.139333 4 0 cbr 1000 ------- 1 4.0 5.0 3 3
+ 0.139333 0 1 cbr 1000 ------- 1 4.0 5.0 3 3
- 0.139333 0 1 cbr 1000 ------- 1 4.0 5.0 3 3
+ 0.14 4 0 cbr 1000 ------- 1 4.0 5.0 5 5
- 0.14 4 0 cbr 1000 ------- 1 4.0 5.0 5 5
r 0.147333 0 1 cbr 1000 ------- 1 4.0 5.0 1 1
+ 0.147333 1 5 cbr 1000 ------- 1 4.0 5.0 1 1
- 0.147333 1 5 cbr 1000 ------- 1 4.0 5.0 1 1
r 0.147333 4 0 cbr 1000 ------- 1 4.0 5.0 4 4
+ 0.147333 0 1 cbr 1000 ------- 1 4.0 5.0 4 4
- 0.147333 0 1 cbr 1000 ------- 1 4.0 5.0 4 4
+ 0.148 4 0 cbr 1000 ------- 1 4.0 5.0 6 6
- 0.148 4 0 cbr 1000 ------- 1 4.0 5.0 6 6
r 0.154667 1 5 cbr 1000 ------- 1 4.0 5.0 0 0
r 0.155333 0 1 cbr 1000 ------- 1 4.0 5.0 2 2
+ 0.155333 1 5 cbr 1000 ------- 1 4.0 5.0 2 2
- 0.155333 1 5 cbr 1000 ------- 1 4.0 5.0 2 2
r 0.155333 4 0 cbr 1000 ------- 1 4.0 5.0 5 5
+ 0.155333 0 1 cbr 1000 ------- 1 4.0 5.0 5 5
- 0.155333 0 1 cbr 1000 ------- 1 4.0 5.0 5 5
+ 0.156 4 0 cbr 1000 ------- 1 4.0 5.0 7 7
- 0.156 4 0 cbr 1000 ------- 1 4.0 5.0 7 7
r 0.162667 1 5 cbr 1000 ------- 1 4.0 5.0 1 1
r 0.163333 0 1 cbr 1000 ------- 1 4.0 5.0 3 3
+ 0.163333 1 5 cbr 1000 ------- 1 4.0 5.0 3 3
- 0.163333 1 5 cbr 1000 ------- 1 4.0 5.0 3 3
r 0.163333 4 0 cbr 1000 ------- 1 4.0 5.0 6 6
+ 0.163333 0 1 cbr 1000 ------- 1 4.0 5.0 6 6
- 0.163333 0 1 cbr 1000 ------- 1 4.0 5.0 6 6
+ 0.164 4 0 cbr 1000 ------- 1 4.0 5.0 8 8
- 0.164 4 0 cbr 1000 ------- 1 4.0 5.0 8 8
r 0.170667 1 5 cbr 1000 ------- 1 4.0 5.0 2 2
r 0.171333 0 1 cbr 1000 ------- 1 4.0 5.0 4 4
+ 0.171333 1 5 cbr 1000 ------- 1 4.0 5.0 4 4
- 0.171333 1 5 cbr 1000 ------- 1 4.0 5.0 4 4
r 0.171333 4 0 cbr 1000 ------- 1 4.0 5.0 7 7
+ 0.171333 0 1 cbr 1000 ------- 1 4.0 5.0 7 7
- 0.171333 0 1 cbr 1000 ------- 1 4.0 5.0 7 7
+ 0.172 4 0 cbr 1000 ------- 1 4.0 5.0 9 9
- 0.172 4 0 cbr 1000 ------- 1 4.0 5.0 9 9
r 0.178667 1 5 cbr 1000 ------- 1 4.0 5.0 3 3
r 0.179333 0 1 cbr 1000 ------- 1 4.0 5.0 5 5
+ 0.179333 1 5 cbr 1000 ------- 1 4.0 5.0 5 5
- 0.179333 1 5 cbr 1000 ------- 1 4.0 5.0 5 5
r 0.179333 4 0 cbr 1000 ------- 1 4.0 5.0 8 8
+ 0.179333 0 1 cbr 1000 ------- 1 4.0 5.0 8 8
- 0.179333 0 1 cbr 1000 ------- 1 4.0 5.0 8 8
+ 0.18 4 0 cbr 1000 ------- 1 4.0 5.0 10 10
- 0.18 4 0 cbr 1000 ------- 1 4.0 5.0 10 10
r 0.186667 1 5 cbr 1000 ------- 1 4.0 5.0 4 4
r 0.187333 0 1 cbr 1000 ------- 1 4.0 5.0 6 6
+ 0.187333 1 5 cbr 1000 ------- 1 4.0 5.0 6 6
- 0.187333 1 5 cbr 1000 ------- 1 4.0 5.0 6 6
r 0.187333 4 0 cbr 1000 ------- 1 4.0 5.0 9 9
+ 0.187333 0 1 cbr 1000 ------- 1 4.0 5.0 9 9
- 0.187333 0 1 cbr 1000 ------- 1 4.0 5.0 9 9
+ 0.188 4 0 cbr 1000 ------- 1 4.0 5.0 11 11
- 0.188 4 0 cbr 1000 ------- 1 4.0 5.0 11 11
r 0.194667 1 5 cbr 1000 ------- 1 4.0 5.0 5 5
r 0.195333 0 1 cbr 1000 ------- 1 4.0 5.0 7 7
+ 0.195333 1 5 cbr 1000 ------- 1 4.0 5.0 7 7
- 0.195333 1 5 cbr 1000 ------- 1 4.0 5.0 7 7
r 0.195333 4 0 cbr 1000 ------- 1 4.0 5.0 10 10
+ 0.195333 0 1 cbr 1000 ------- 1 4.0 5.0 10 10
- 0.195333 0 1 cbr 1000 ------- 1 4.0 5.0 10 10
+ 0.196 4 0 cbr 1000 ------- 1 4.0 5.0 12 12
- 0.196 4 0 cbr 1000 ------- 1 4.0 5.0 12 12
r 0.202667 1 5 cbr 1000 ------- 1 4.0 5.0 6 6
r 0.203333 0 1 cbr 1000 ------- 1 4.0 5.0 8 8
+ 0.203333 1 5 cbr 1000 ------- 1 4.0 5.0 8 8
- 0.203333 1 5 cbr 1000 ------- 1 4.0 5.0 8 8
r 0.203333 4 0 cbr 1000 ------- 1 4.0 5.0 11 11
+ 0.203333 0 1 cbr 1000 ------- 1 4.0 5.0 11 11
- 0.203333 0 1 cbr 1000 ------- 1 4.0 5.0 11 11
+ 0.204 4 0 cbr 1000 ------- 1 4.0 5.0 13 13
- 0.204 4 0 cbr 1000 ------- 1 4.0 5.0 13 13
r 0.210667 1 5 cbr 1000 ------- 1 4.0 5.0 7 7
r 0.211333 0 1 cbr 1000 ------- 1 4.0 5.0 9 9
+ 0.211333 1 5 cbr 1000 ------- 1 4.0 5.0 9 9
- 0.211333 1 5 cbr 1000 ------- 1 4.0 5.0 9 9
r 0.211333 4 0 cbr 1000 ------- 1 4.0 5.0 12 12
+ 0.211333 0 1 cbr 1000 ------- 1 4.0 5.0 12 12
- 0.211333 0 1 cbr 1000 ------- 1 4.0 5.0 12 12
+ 0.212 4 0 cbr 1000 ------- 1 4.0 5.0 14 14
- 0.212 4 0 cbr 1000 ------- 1 4.0 5.0 14 14
r 0.218667 1 5 cbr 1000 ------- 1 4.0 5.0 8 8
r 0.219333 0 1 cbr 1000 ------- 1 4.0 5.0 10 10
+ 0.219333 1 5 cbr 1000 ------- 1 4.0 5.0 10 10
- 0.219333 1 5 cbr 1000 ------- 1 4.0 5.0 10 10
r 0.219333 4 0 cbr 1000 ------- 1 4.0 5.0 13 13
+ 0.219333 0 1 cbr 1000 ------- 1 4.0 5.0 13 13
- 0.219333 0 1 cbr 1000 ------- 1 4.0 5.0 13 13
+ 0.22 4 0 cbr 1000 ------- 1 4.0 5.0 15 15
- 0.22 4 0 cbr 1000 ------- 1 4.0 5.0 15 15
r 0.226667 1 5 cbr 1000 ------- 1 4.0 5.0 9 9
r 0.227333 0 1 cbr 1000 ------- 1 4.0 5.0 11 11
+ 0.227333 1 5 cbr 1000 ------- 1 4.0 5.0 11 11
- 0.227333 1 5 cbr 1000 ------- 1 4.0 5.0 11 11
r 0.227333 4 0 cbr 1000 ------- 1 4.0 5.0 14 14
+ 0.227333 0 1 cbr 1000 ------- 1 4.0 5.0 14 14
- 0.227333 0 1 cbr 1000 ------- 1 4.0 5.0 14 14
+ 0.228 4 0 cbr 1000 ------- 1 4.0 5.0 16 16
- 0.228 4 0 cbr 1000 ------- 1 4.0 5.0 16 16
r 0.234667 1 5 cbr 1000 ------- 1 4.0 5.0 10 10
r 0.235333 0 1 cbr 1000 ------- 1 4.0 5.0 12 12
+ 0.235333 1 5 cbr 1000 ------- 1 4.0 5.0 12 12
- 0.235333 1 5 cbr 1000 ------- 1 4.0 5.0 12 12
r 0.235333 4 0 cbr 1000 ------- 1 4.0 5.0 15 15
+ 0.235333 0 1 cbr 1000 ------- 1 4.0 5.0 15 15
- 0.235333 0 1 cbr 1000 ------- 1 4.0 5.0 15 15
+ 0.236 4 0 cbr 1000 ------- 1 4.0 5.0 17 17
- 0.236 4 0 cbr 1000 ------- 1 4.0 5.0 17 17
r 0.242667 1 5 cbr 1000 ------- 1 4.0 5.0 11 11
r 0.243333 0 1 cbr 1000 ------- 1 4.0 5.0 13 13
+ 0.243333 1 5 cbr 1000 ------- 1 4.0 5.0 13 13
- 0.243333 1 5 cbr 1000 ------- 1 4.0 5.0 13 13
r 0.243333 4 0 cbr 1000 ------- 1 4.0 5.0 16 16
+ 0.243333 0 1 cbr 1000 ------- 1 4.0 5.0 16 16
- 0.243333 0 1 cbr 1000 ------- 1 4.0 5.0 16 16
+ 0.244 4 0 cbr 1000 ------- 1 4.0 5.0 18 18
- 0.244 4 0 cbr 1000 ------- 1 4.0 5.0 18 18
r 0.250667 1 5 cbr 1000 ------- 1 4.0 5.0 12 12
r 0.251333 0 1 cbr 1000 ------- 1 4.0 5.0 14 14
+ 0.251333 1 5 cbr 1000 ------- 1 4.0 5.0 14 14
- 0.251333 1 5 cbr 1000 ------- 1 4.0 5.0 14 14
r 0.251333 4 0 cbr 1000 ------- 1 4.0 5.0 17 17
+ 0.251333 0 1 cbr 1000 ------- 1 4.0 5.0 17 17
- 0.251333 0 1 cbr 1000 ------- 1 4.0 5.0 17 17
+ 0.252 4 0 cbr 1000 ------- 1 4.0 5.0 19 19
- 0.252 4 0 cbr 1000 ------- 1 4.0 5.0 19 19
r 0.258667 1 5 cbr 1000 ------- 1 4.0 5.0 13 13
r 0.259333 0 1 cbr 1000 ------- 1 4.0 5.0 15 15
+ 0.259333 1 5 cbr 1000 ------- 1 4.0 5.0 15 15
- 0.259333 1 5 cbr 1000 ------- 1 4.0 5.0 15 15
r 0.259333 4 0 cbr 1000 ------- 1 4.0 5.0 18 18
+ 0.259333 0 1 cbr 1000 ------- 1 4.0 5.0 18 18
- 0.259333 0 1 cbr 1000 ------- 1 4.0 5.0 18 18
+ 0.26 4 0 cbr 1000 ------- 1 4.0 5.0 20 20
- 0.26 4 0 cbr 1000 ------- 1 4.0 5.0 20 20
r 0.266667 1 5 cbr 1000 ------- 1 4.0 5.0 14 14
r 0.267333 4 0 cbr 1000 ------- 1 4.0 5.0 19 19
+ 0.267333 0 1 cbr 1000 ------- 1 4.0 5.0 19 19
- 0.267333 0 1 cbr 1000 ------- 1 4.0 5.0 19 19
r 0.267333 0 1 cbr 1000 ------- 1 4.0 5.0 16 16
+ 0.267333 1 5 cbr 1000 ------- 1 4.0 5.0 16 16
- 0.267333 1 5 cbr 1000 ------- 1 4.0 5.0 16 16
+ 0.268 4 0 cbr 1000 ------- 1 4.0 5.0 21 21
- 0.268 4 0 cbr 1000 ------- 1 4.0 5.0 21 21
r 0.274667 1 5 cbr 1000 ------- 1 4.0 5.0 15 15
r 0.275333 4 0 cbr 1000 ------- 1 4.0 5.0 20 20
+ 0.275333 0 1 cbr 1000 ------- 1 4.0 5.0 20 20
- 0.275333 0 1 cbr 1000 ------- 1 4.0 5.0 20 20
r 0.275333 0 1 cbr 1000 ------- 1 4.0 5.0 17 17
+ 0.275333 1 5 cbr 1000 ------- 1 4.0 5.0 17 17
- 0.275333 1 5 cbr 1000 ------- 1 4.0 5.0 17 17
+ 0.276 4 0 cbr 1000 ------- 1 4.0 5.0 22 22
- 0.276 4 0 cbr 1000 ------- 1 4.0 5.0 22 22
r 0.282667 1 5 cbr 1000 ------- 1 4.0 5.0 16 16
r 0.283333 4 0 cbr 1000 ------- 1 4.0 5.0 21 21
+ 0.283333 0 1 cbr 1000 ------- 1 4.0 5.0 21 21
- 0.283333 0 1 cbr 1000 ------- 1 4.0 5.0 21 21
r 0.283333 0 1 cbr 1000 ------- 1 4.0 5.0 18 18
+ 0.283333 1 5 cbr 1000 ------- 1 4.0 5.0 18 18
- 0.283333 1 5 cbr 1000 ------- 1 4.0 5.0 18 18
+ 0.284 4 0 cbr 1000 ------- 1 4.0 5.0 23 23
- 0.284 4 0 cbr 1000 ------- 1 4.0 5.0 23 23
r 0.290667 1 5 cbr 1000 ------- 1 4.0 5.0 17 17
r 0.291333 0 1 cbr 1000 ------- 1 4.0 5.0 19 19
+ 0.291333 1 5 cbr 1000 ------- 1 4.0 5.0 19 19
- 0.291333 1 5 cbr 1000 ------- 1 4.0 5.0 19 19
r 0.291333 4 0 cbr 1000 ------- 1 4.0 5.0 22 22
+ 0.291333 0 1 cbr 1000 ------- 1 4.0 5.0 22 22
- 0.291333 0 1 cbr 1000 ------- 1 4.0 5.0 22 22
+ 0.292 4 0 cbr 1000 ------- 1 4.0 5.0 24 24
- 0.292 4 0 cbr 1000 ------- 1 4.0 5.0 24 24
r 0.298667 1 5 cbr 1000 ------- 1 4.0 5.0 18 18
r 0.299333 0 1 cbr 1000 ------- 1 4.0 5.0 20 20
+ 0.299333 1 5 cbr 1000 ------- 1 4.0 5.0 20 20
- 0.299333 1 5 cbr 1000 ------- 1 4.0 5.0 20 20
r 0.299333 4 0 cbr 1000 ------- 1 4.0 5.0 23 23
+ 0.299333 0 1 cbr 1000 ------- 1 4.0 5.0 23 23
- 0.299333 0 1 cbr 1000 ------- 1 4.0 5.0 23 23
+ 0.3 4 0 cbr 1000 ------- 1 4.0 5.0 25 25
- 0.3 4 0 cbr 1000 ------- 1 4.0 5.0 25 25
r 0.306667 1 5 cbr 1000 ------- 1 4.0 5.0 19 19
r 0.307333 0 1 cbr 1000 ------- 1 4.0 5.0 21 21
+ 0.307333 1 5 cbr 1000 ------- 1 4.0 5.0 21 21
- 0.307333 1 5 cbr 1000 ------- 1 4.0 5.0 21 21
r 0.307333 4 0 cbr 1000 ------- 1 4.0 5.0 24 24
+ 0.307333 0 1 cbr 1000 ------- 1 4.0 5.0 24 24
- 0.307333 0 1 cbr 1000 ------- 1 4.0 5.0 24 24
+ 0.308 4 0 cbr 1000 ------- 1 4.0 5.0 26 26
- 0.308 4 0 cbr 1000 ------- 1 4.0 5.0 26 26
r 0.314667 1 5 cbr 1000 ------- 1 4.0 5.0 20 20
r 0.315333 0 1 cbr 1000 ------- 1 4.0 5.0 22 22
+ 0.315333 1 5 cbr 1000 ------- 1 4.0 5.0 22 22
- 0.315333 1 5 cbr 1000 ------- 1 4.0 5.0 22 22
r 0.315333 4 0 cbr 1000 ------- 1 4.0 5.0 25 25
+ 0.315333 0 1 cbr 1000 ------- 1 4.0 5.0 25 25
- 0.315333 0 1 cbr 1000 ------- 1 4.0 5.0 25 25
+ 0.316 4 0 cbr 1000 ------- 1 4.0 5.0 27 27
- 0.316 4 0 cbr 1000 ------- 1 4.0 5.0 27 27
r 0.322667 1 5 cbr 1000 ------- 1 4.0 5.0 21 21
r 0.323333 0 1 cbr 1000 ------- 1 4.0 5.0 23 23
+ 0.323333 1 5 cbr 1000 ------- 1 4.0 5.0 23 23
- 0.323333 1 5 cbr 1000 ------- 1 4.0 5.0 23 23
r 0.323333 4 0 cbr 1000 ------- 1 4.0 5.0 26 26
+ 0.323333 0 1 cbr 1000 ------- 1 4.0 5.0 26 26
- 0.323333 0 1 cbr 1000 ------- 1 4.0 5.0 26 26
+ 0.324 4 0 cbr 1000 ------- 1 4.0 5.0 28 28
- 0.324 4 0 cbr 1000 ------- 1 4.0 5.0 28 28
r 0.330667 1 5 cbr 1000 ------- 1 4.0 5.0 22 22
r 0.331333 0 1 cbr 1000 ------- 1 4.0 5.0 24 24
+ 0.331333 1 5 cbr 1000 ------- 1 4.0 5.0 24 24
- 0.331333 1 5 cbr 1000 ------- 1 4.0 5.0 24 24
r 0.331333 4 0 cbr 1000 ------- 1 4.0 5.0 27 27
+ 0.331333 0 1 cbr 1000 ------- 1 4.0 5.0 27 27
- 0.331333 0 1 cbr 1000 ------- 1 4.0 5.0 27 27
+ 0.332 4 0 cbr 1000 ------- 1 4.0 5.0 29 29
- 0.332 4 0 cbr 1000 ------- 1 4.0 5.0 29 29
r 0.338667 1 5 cbr 1000 ------- 1 4.0 5.0 23 23
r 0.339333 0 1 cbr 1000 ------- 1 4.0 5.0 25 25
+ 0.339333 1 5 cbr 1000 ------- 1 4.0 5.0 25 25
- 0.339333 1 5 cbr 1000 ------- 1 4.0 5.0 25 25
r 0.339333 4 0 cbr 1000 ------- 1 4.0 5.0 28 28
+ 0.339333 0 1 cbr 1000 ------- 1 4.0 5.0 28 28
- 0.339333 0 1 cbr 1000 ------- 1 4.0 5.0 28 28
+ 0.34 4 0 cbr 1000 ------- 1 4.0 5.0 30 30
- 0.34 4 0 cbr 1000 ------- 1 4.0 5.0 30 30
r 0.346667 1 5 cbr 1000 ------- 1 4.0 5.0 24 24
r 0.347333 0 1 cbr 1000 ------- 1 4.0 5.0 26 26
+ 0.347333 1 5 cbr 1000 ------- 1 4.0 5.0 26 26
- 0.347333 1 5 cbr 1000 ------- 1 4.0 5.0 26 26
r 0.347333 4 0 cbr 1000 ------- 1 4.0 5.0 29 29
+ 0.347333 0 1 cbr 1000 ------- 1 4.0 5.0 29 29
- 0.347333 0 1 cbr 1000 ------- 1 4.0 5.0 29 29
+ 0.348 4 0 cbr 1000 ------- 1 4.0 5.0 31 31
- 0.348 4 0 cbr 1000 ------- 1 4.0 5.0 31 31
r 0.354667 1 5 cbr 1000 ------- 1 4.0 5.0 25 25
r 0.355333 0 1 cbr 1000 ------- 1 4.0 5.0 27 27
+ 0.355333 1 5 cbr 1000 ------- 1 4.0 5.0 27 27
- 0.355333 1 5 cbr 1000 ------- 1 4.0 5.0 27 27
r 0.355333 4 0 cbr 1000 ------- 1 4.0 5.0 30 30
+ 0.355333 0 1 cbr 1000 ------- 1 4.0 5.0 30 30
- 0.355333 0 1 cbr 1000 ------- 1 4.0 5.0 30 30
+ 0.356 4 0 cbr 1000 ------- 1 4.0 5.0 32 32
- 0.356 4 0 cbr 1000 ------- 1 4.0 5.0 32 32
r 0.362667 1 5 cbr 1000 ------- 1 4.0 5.0 26 26
r 0.363333 0 1 cbr 1000 ------- 1 4.0 5.0 28 28
+ 0.363333 1 5 cbr 1000 ------- 1 4.0 5.0 28 28
- 0.363333 1 5 cbr 1000 ------- 1 4.0 5.0 28 28
r 0.363333 4 0 cbr 1000 ------- 1 4.0 5.0 31 31
+ 0.363333 0 1 cbr 1000 ------- 1 4.0 5.0 31 31
- 0.363333 0 1 cbr 1000 ------- 1 4.0 5.0 31 31
+ 0.364 4 0 cbr 1000 ------- 1 4.0 5.0 33 33
- 0.364 4 0 cbr 1000 ------- 1 4.0 5.0 33 33
r 0.370667 1 5 cbr 1000 ------- 1 4.0 5.0 27 27
r 0.371333 0 1 cbr 1000 ------- 1 4.0 5.0 29 29
+ 0.371333 1 5 cbr 1000 ------- 1 4.0 5.0 29 29
- 0.371333 1 5 cbr 1000 ------- 1 4.0 5.0 29 29
r 0.371333 4 0 cbr 1000 ------- 1 4.0 5.0 32 32
+ 0.371333 0 1 cbr 1000 ------- 1 4.0 5.0 32 32
- 0.371333 0 1 cbr 1000 ------- 1 4.0 5.0 32 32
+ 0.372 4 0 cbr 1000 ------- 1 4.0 5.0 34 34
- 0.372 4 0 cbr 1000 ------- 1 4.0 5.0 34 34
r 0.378667 1 5 cbr 1000 ------- 1 4.0 5.0 28 28
r 0.379333 0 1 cbr 1000 ------- 1 4.0 5.0 30 30
+ 0.379333 1 5 cbr 1000 ------- 1 4.0 5.0 30 30
- 0.379333 1 5 cbr 1000 ------- 1 4.0 5.0 30 30
r 0.379333 4 0 cbr 1000 ------- 1 4.0 5.0 33 33
+ 0.379333 0 1 cbr 1000 ------- 1 4.0 5.0 33 33
- 0.379333 0 1 cbr 1000 ------- 1 4.0 5.0 33 33
+ 0.38 4 0 cbr 1000 ------- 1 4.0 5.0 35 35
- 0.38 4 0 cbr 1000 ------- 1 4.0 5.0 35 35
r 0.386667 1 5 cbr 1000 ------- 1 4.0 5.0 29 29
r 0.387333 0 1 cbr 1000 ------- 1 4.0 5.0 31 31
+ 0.387333 1 5 cbr 1000 ------- 1 4.0 5.0 31 31
- 0.387333 1 5 cbr 1000 ------- 1 4.0 5.0 31 31
r 0.387333 4 0 cbr 1000 ------- 1 4.0 5.0 34 34
+ 0.387333 0 1 cbr 1000 ------- 1 4.0 5.0 34 34
- 0.387333 0 1 cbr 1000 ------- 1 4.0 5.0 34 34
+ 0.388 4 0 cbr 1000 ------- 1 4.0 5.0 36 36
- 0.388 4 0 cbr 1000 ------- 1 4.0 5.0 36 36
r 0.394667 1 5 cbr 1000 ------- 1 4.0 5.0 30 30
r 0.395333 0 1 cbr 1000 ------- 1 4.0 5.0 32 32
+ 0.395333 1 5 cbr 1000 ------- 1 4.0 5.0 32 32
- 0.395333 1 5 cbr 1000 ------- 1 4.0 5.0 32 32
r 0.395333 4 0 cbr 1000 ------- 1 4.0 5.0 35 35
+ 0.395333 0 1 cbr 1000 ------- 1 4.0 5.0 35 35
- 0.395333 0 1 cbr 1000 ------- 1 4.0 5.0 35 35
+ 0.396 4 0 cbr 1000 ------- 1 4.0 5.0 37 37
- 0.396 4 0 cbr 1000 ------- 1 4.0 5.0 37 37
r 0.402667 1 5 cbr 1000 ------- 1 4.0 5.0 31 31
r 0.403333 0 1 cbr 1000 ------- 1 4.0 5.0 33 33
+ 0.403333 1 5 cbr 1000 ------- 1 4.0 5.0 33 33
- 0.403333 1 5 cbr 1000 ------- 1 4.0 5.0 33 33
r 0.403333 4 0 cbr 1000 ------- 1 4.0 5.0 36 36
+ 0.403333 0 1 cbr 1000 ------- 1 4.0 5.0 36 36
- 0.403333 0 1 cbr 1000 ------- 1 4.0 5.0 36 36
+ 0.404 4 0 cbr 1000 ------- 1 4.0 5.0 38 38
- 0.404 4 0 cbr 1000 ------- 1 4.0 5.0 38 38
r 0.410667 1 5 cbr 1000 ------- 1 4.0 5.0 32 32
r 0.411333 0 1 cbr 1000 ------- 1 4.0 5.0 34 34
+ 0.411333 1 5 cbr 1000 ------- 1 4.0 5.0 34 34
- 0.411333 1 5 cbr 1000 ------- 1 4.0 5.0 34 34
r 0.411333 4 0 cbr 1000 ------- 1 4.0 5.0 37 37
+ 0.411333 0 1 cbr 1000 ------- 1 4.0 5.0 37 37
- 0.411333 0 1 cbr 1000 ------- 1 4.0 5.0 37 37
+ 0.412 4 0 cbr 1000 ------- 1 4.0 5.0 39 39
- 0.412 4 0 cbr 1000 ------- 1 4.0 5.0 39 39
r 0.418667 1 5 cbr 1000 ------- 1 4.0 5.0 33 33
r 0.419333 0 1 cbr 1000 ------- 1 4.0 5.0 35 35
+ 0.419333 1 5 cbr 1000 ------- 1 4.0 5.0 35 35
- 0.419333 1 5 cbr 1000 ------- 1 4.0 5.0 35 35
r 0.419333 4 0 cbr 1000 ------- 1 4.0 5.0 38 38
+ 0.419333 0 1 cbr 1000 ------- 1 4.0 5.0 38 38
- 0.419333 0 1 cbr 1000 ------- 1 4.0 5.0 38 38
+ 0.42 4 0 cbr 1000 ------- 1 4.0 5.0 40 40
- 0.42 4 0 cbr 1000 ------- 1 4.0 5.0 40 40
r 0.426667 1 5 cbr 1000 ------- 1 4.0 5.0 34 34
r 0.427333 0 1 cbr 1000 ------- 1 4.0 5.0 36 36
+ 0.427333 1 5 cbr 1000 ------- 1 4.0 5.0 36 36
- 0.427333 1 5 cbr 1000 ------- 1 4.0 5.0 36 36
r 0.427333 4 0 cbr 1000 ------- 1 4.0 5.0 39 39
+ 0.427333 0 1 cbr 1000 ------- 1 4.0 5.0 39 39
- 0.427333 0 1 cbr 1000 ------- 1 4.0 5.0 39 39
+ 0.428 4 0 cbr 1000 ------- 1 4.0 5.0 41 41
- 0.428 4 0 cbr 1000 ------- 1 4.0 5.0 41 41
r 0.434667 1 5 cbr 1000 ------- 1 4.0 5.0 35 35
r 0.435333 0 1 cbr 1000 ------- 1 4.0 5.0 37 37
+ 0.435333 1 5 cbr 1000 ------- 1 4.0 5.0 37 37
- 0.435333 1 5 cbr 1000 ------- 1 4.0 5.0 37 37
r 0.435333 4 0 cbr 1000 ------- 1 4.0 5.0 40 40
+ 0.435333 0 1 cbr 1000 ------- 1 4.0 5.0 40 40
- 0.435333 0 1 cbr 1000 ------- 1 4.0 5.0 40 40
+ 0.436 4 0 cbr 1000 ------- 1 4.0 5.0 42 42
- 0.436 4 0 cbr 1000 ------- 1 4.0 5.0 42 42
r 0.442667 1 5 cbr 1000 ------- 1 4.0 5.0 36 36
r 0.443333 0 1 cbr 1000 ------- 1 4.0 5.0 38 38
+ 0.443333 1 5 cbr 1000 ------- 1 4.0 5.0 38 38
- 0.443333 1 5 cbr 1000 ------- 1 4.0 5.0 38 38
r 0.443333 4 0 cbr 1000 ------- 1 4.0 5.0 41 41
+ 0.443333 0 1 cbr 1000 ------- 1 4.0 5.0 41 41
- 0.443333 0 1 cbr 1000 ------- 1 4.0 5.0 41 41
+ 0.444 4 0 cbr 1000 ------- 1 4.0 5.0 43 43
- 0.444 4 0 cbr 1000 ------- 1 4.0 5.0 43 43
r 0.450667 1 5 cbr 1000 ------- 1 4.0 5.0 37 37
r 0.451333 0 1 cbr 1000 ------- 1 4.0 5.0 39 39
+ 0.451333 1 5 cbr 1000 ------- 1 4.0 5.0 39 39
- 0.451333 1 5 cbr 1000 ------- 1 4.0 5.0 39 39
r 0.451333 4 0 cbr 1000 ------- 1 4.0 5.0 42 42
+ 0.451333 0 1 cbr 1000 ------- 1 4.0 5.0 42 42
- 0.451333 0 1 cbr 1000 ------- 1 4.0 5.0 42 42
+ 0.452 4 0 cbr 1000 ------- 1 4.0 5.0 44 44
- 0.452 4 0 cbr 1000 ------- 1 4.0 5.0 44 44
r 0.458667 1 5 cbr 1000 ------- 1 4.0 5.0 38 38
r 0.459333 0 1 cbr 1000 ------- 1 4.0 5.0 40 40
+ 0.459333 1 5 cbr 1000 ------- 1 4.0 5.0 40 40
- 0.459333 1 5 cbr 1000 ------- 1 4.0 5.0 40 40
r 0.459333 4 0 cbr 1000 ------- 1 4.0 5.0 43 43
+ 0.459333 0 1 cbr 1000 ------- 1 4.0 5.0 43 43
- 0.459333 0 1 cbr 1000 ------- 1 4.0 5.0 43 43
+ 0.46 4 0 cbr 1000 ------- 1 4.0 5.0 45 45
- 0.46 4 0 cbr 1000 ------- 1 4.0 5.0 45 45
r 0.466667 1 5 cbr 1000 ------- 1 4.0 5.0 39 39
r 0.467333 0 1 cbr 1000 ------- 1 4.0 5.0 41 41
+ 0.467333 1 5 cbr 1000 ------- 1 4.0 5.0 41 41
- 0.467333 1 5 cbr 1000 ------- 1 4.0 5.0 41 41
r 0.467333 4 0 cbr 1000 ------- 1 4.0 5.0 44 44
+ 0.467333 0 1 cbr 1000 ------- 1 4.0 5.0 44 44
- 0.467333 0 1 cbr 1000 ------- 1 4.0 5.0 44 44
+ 0.468 4 0 cbr 1000 ------- 1 4.0 5.0 46 46
- 0.468 4 0 cbr 1000 ------- 1 4.0 5.0 46 46
r 0.474667 1 5 cbr 1000 ------- 1 4.0 5.0 40 40
r 0.475333 0 1 cbr 1000 ------- 1 4.0 5.0 42 42
+ 0.475333 1 5 cbr 1000 ------- 1 4.0 5.0 42 42
- 0.475333 1 5 cbr 1000 ------- 1 4.0 5.0 42 42
r 0.475333 4 0 cbr 1000 ------- 1 4.0 5.0 45 45
+ 0.475333 0 1 cbr 1000 ------- 1 4.0 5.0 45 45
- 0.475333 0 1 cbr 1000 ------- 1 4.0 5.0 45 45
+ 0.476 4 0 cbr 1000 ------- 1 4.0 5.0 47 47
- 0.476 4 0 cbr 1000 ------- 1 4.0 5.0 47 47
r 0.482667 1 5 cbr 1000 ------- 1 4.0 5.0 41 41
r 0.483333 0 1 cbr 1000 ------- 1 4.0 5.0 43 43
+ 0.483333 1 5 cbr 1000 ------- 1 4.0 5.0 43 43
- 0.483333 1 5 cbr 1000 ------- 1 4.0 5.0 43 43
r 0.483333 4 0 cbr 1000 ------- 1 4.0 5.0 46 46
+ 0.483333 0 1 cbr 1000 ------- 1 4.0 5.0 46 46
- 0.483333 0 1 cbr 1000 ------- 1 4.0 5.0 46 46
+ 0.484 4 0 cbr 1000 ------- 1 4.0 5.0 48 48
- 0.484 4 0 cbr 1000 ------- 1 4.0 5.0 48 48
r 0.490667 1 5 cbr 1000 ------- 1 4.0 5.0 42 42
r 0.491333 0 1 cbr 1000 ------- 1 4.0 5.0 44 44
+ 0.491333 1 5 cbr 1000 ------- 1 4.0 5.0 44 44
- 0.491333 1 5 cbr 1000 ------- 1 4.0 5.0 44 44
r 0.491333 4 0 cbr 1000 ------- 1 4.0 5.0 47 47
+ 0.491333 0 1 cbr 1000 ------- 1 4.0 5.0 47 47
- 0.491333 0 1 cbr 1000 ------- 1 4.0 5.0 47 47
+ 0.492 4 0 cbr 1000 ------- 1 4.0 5.0 49 49
- 0.492 4 0 cbr 1000 ------- 1 4.0 5.0 49 49
r 0.498667 1 5 cbr 1000 ------- 1 4.0 5.0 43 43
r 0.499333 0 1 cbr 1000 ------- 1 4.0 5.0 45 45
+ 0.499333 1 5 cbr 1000 ------- 1 4.0 5.0 45 45
- 0.499333 1 5 cbr 1000 ------- 1 4.0 5.0 45 45
r 0.499333 4 0 cbr 1000 ------- 1 4.0 5.0 48 48
+ 0.499333 0 1 cbr 1000 ------- 1 4.0 5.0 48 48
- 0.499333 0 1 cbr 1000 ------- 1 4.0 5.0 48 48
+ 0.5 4 0 cbr 1000 ------- 1 4.0 5.0 50 50
- 0.5 4 0 cbr 1000 ------- 1 4.0 5.0 50 50
r 0.506667 1 5 cbr 1000 ------- 1 4.0 5.0 44 44
r 0.507333 0 1 cbr 1000 ------- 1 4.0 5.0 46 46
+ 0.507333 1 5 cbr 1000 ------- 1 4.0 5.0 46 46
- 0.507333 1 5 cbr 1000 ------- 1 4.0 5.0 46 46
r 0.507333 4 0 cbr 1000 ------- 1 4.0 5.0 49 49
+ 0.507333 0 1 cbr 1000 ------- 1 4.0 5.0 49 49
- 0.507333 0 1 cbr 1000 ------- 1 4.0 5.0 49 49
+ 0.508 4 0 cbr 1000 ------- 1 4.0 5.0 51 51
- 0.508 4 0 cbr 1000 ------- 1 4.0 5.0 51 51
r 0.514667 1 5 cbr 1000 ------- 1 4.0 5.0 45 45
r 0.515333 0 1 cbr 1000 ------- 1 4.0 5.0 47 47
+ 0.515333 1 5 cbr 1000 ------- 1 4.0 5.0 47 47
- 0.515333 1 5 cbr 1000 ------- 1 4.0 5.0 47 47
r 0.515333 4 0 cbr 1000 ------- 1 4.0 5.0 50 50
+ 0.515333 0 1 cbr 1000 ------- 1 4.0 5.0 50 50
- 0.515333 0 1 cbr 1000 ------- 1 4.0 5.0 50 50
+ 0.516 4 0 cbr 1000 ------- 1 4.0 5.0 52 52
- 0.516 4 0 cbr 1000 ------- 1 4.0 5.0 52 52
r 0.522667 1 5 cbr 1000 ------- 1 4.0 5.0 46 46
r 0.523333 0 1 cbr 1000 ------- 1 4.0 5.0 48 48
+ 0.523333 1 5 cbr 1000 ------- 1 4.0 5.0 48 48
- 0.523333 1 5 cbr 1000 ------- 1 4.0 5.0 48 48
r 0.523333 4 0 cbr 1000 ------- 1 4.0 5.0 51 51
+ 0.523333 0 1 cbr 1000 ------- 1 4.0 5.0 51 51
- 0.523333 0 1 cbr 1000 ------- 1 4.0 5.0 51 51
+ 0.524 4 0 cbr 1000 ------- 1 4.0 5.0 53 53
- 0.524 4 0 cbr 1000 ------- 1 4.0 5.0 53 53
r 0.530667 1 5 cbr 1000 ------- 1 4.0 5.0 47 47
r 0.531333 0 1 cbr 1000 ------- 1 4.0 5.0 49 49
+ 0.531333 1 5 cbr 1000 ------- 1 4.0 5.0 49 49
- 0.531333 1 5 cbr 1000 ------- 1 4.0 5.0 49 49
r 0.531333 4 0 cbr 1000 ------- 1 4.0 5.0 52 52
+ 0.531333 0 1 cbr 1000 ------- 1 4.0 5.0 52 52
- 0.531333 0 1 cbr 1000 ------- 1 4.0 5.0 52 52
+ 0.532 4 0 cbr 1000 ------- 1 4.0 5.0 54 54
- 0.532 4 0 cbr 1000 ------- 1 4.0 5.0 54 54
r 0.538667 1 5 cbr 1000 ------- 1 4.0 5.0 48 48
r 0.539333 0 1 cbr 1000 ------- 1 4.0 5.0 50 50
+ 0.539333 1 5 cbr 1000 ------- 1 4.0 5.0 50 50
- 0.539333 1 5 cbr 1000 ------- 1 4.0 5.0 50 50
r 0.539333 4 0 cbr 1000 ------- 1 4.0 5.0 53 53
+ 0.539333 0 1 cbr 1000 ------- 1 4.0 5.0 53 53
- 0.539333 0 1 cbr 1000 ------- 1 4.0 5.0 53 53
+ 0.54 4 0 cbr 1000 ------- 1 4.0 5.0 55 55
- 0.54 4 0 cbr 1000 ------- 1 4.0 5.0 55 55
r 0.546667 1 5 cbr 1000 ------- 1 4.0 5.0 49 49
r 0.547333 0 1 cbr 1000 ------- 1 4.0 5.0 51 51
+ 0.547333 1 5 cbr 1000 ------- 1 4.0 5.0 51 51
- 0.547333 1 5 cbr 1000 ------- 1 4.0 5.0 51 51
r 0.547333 4 0 cbr 1000 ------- 1 4.0 5.0 54 54
+ 0.547333 0 1 cbr 1000 ------- 1 4.0 5.0 54 54
- 0.547333 0 1 cbr 1000 ------- 1 4.0 5.0 54 54
+ 0.548 4 0 cbr 1000 ------- 1 4.0 5.0 56 56
- 0.548 4 0 cbr 1000 ------- 1 4.0 5.0 56 56
r 0.554667 1 5 cbr 1000 ------- 1 4.0 5.0 50 50
r 0.555333 0 1 cbr 1000 ------- 1 4.0 5.0 52 52
+ 0.555333 1 5 cbr 1000 ------- 1 4.0 5.0 52 52
- 0.555333 1 5 cbr 1000 ------- 1 4.0 5.0 52 52
r 0.555333 4 0 cbr 1000 ------- 1 4.0 5.0 55 55
+ 0.555333 0 1 cbr 1000 ------- 1 4.0 5.0 55 55
- 0.555333 0 1 cbr 1000 ------- 1 4.0 5.0 55 55
+ 0.556 4 0 cbr 1000 ------- 1 4.0 5.0 57 57
- 0.556 4 0 cbr 1000 ------- 1 4.0 5.0 57 57
r 0.562667 1 5 cbr 1000 ------- 1 4.0 5.0 51 51
r 0.563333 0 1 cbr 1000 ------- 1 4.0 5.0 53 53
+ 0.563333 1 5 cbr 1000 ------- 1 4.0 5.0 53 53
- 0.563333 1 5 cbr 1000 ------- 1 4.0 5.0 53 53
r 0.563333 4 0 cbr 1000 ------- 1 4.0 5.0 56 56
+ 0.563333 0 1 cbr 1000 ------- 1 4.0 5.0 56 56
- 0.563333 0 1 cbr 1000 ------- 1 4.0 5.0 56 56
+ 0.564 4 0 cbr 1000 ------- 1 4.0 5.0 58 58
- 0.564 4 0 cbr 1000 ------- 1 4.0 5.0 58 58
r 0.570667 1 5 cbr 1000 ------- 1 4.0 5.0 52 52
r 0.571333 0 1 cbr 1000 ------- 1 4.0 5.0 54 54
+ 0.571333 1 5 cbr 1000 ------- 1 4.0 5.0 54 54
- 0.571333 1 5 cbr 1000 ------- 1 4.0 5.0 54 54
r 0.571333 4 0 cbr 1000 ------- 1 4.0 5.0 57 57
+ 0.571333 0 1 cbr 1000 ------- 1 4.0 5.0 57 57
- 0.571333 0 1 cbr 1000 ------- 1 4.0 5.0 57 57
+ 0.572 4 0 cbr 1000 ------- 1 4.0 5.0 59 59
- 0.572 4 0 cbr 1000 ------- 1 4.0 5.0 59 59
r 0.578667 1 5 cbr 1000 ------- 1 4.0 5.0 53 53
r 0.579333 0 1 cbr 1000 ------- 1 4.0 5.0 55 55
+ 0.579333 1 5 cbr 1000 ------- 1 4.0 5.0 55 55
- 0.579333 1 5 cbr 1000 ------- 1 4.0 5.0 55 55
r 0.579333 4 0 cbr 1000 ------- 1 4.0 5.0 58 58
+ 0.579333 0 1 cbr 1000 ------- 1 4.0 5.0 58 58
- 0.579333 0 1 cbr 1000 ------- 1 4.0 5.0 58 58
+ 0.58 4 0 cbr 1000 ------- 1 4.0 5.0 60 60
- 0.58 4 0 cbr 1000 ------- 1 4.0 5.0 60 60
r 0.586667 1 5 cbr 1000 ------- 1 4.0 5.0 54 54
r 0.587333 0 1 cbr 1000 ------- 1 4.0 5.0 56 56
+ 0.587333 1 5 cbr 1000 ------- 1 4.0 5.0 56 56
- 0.587333 1 5 cbr 1000 ------- 1 4.0 5.0 56 56
r 0.587333 4 0 cbr 1000 ------- 1 4.0 5.0 59 59
+ 0.587333 0 1 cbr 1000 ------- 1 4.0 5.0 59 59
- 0.587333 0 1 cbr 1000 ------- 1 4.0 5.0 59 59
+ 0.588 4 0 cbr 1000 ------- 1 4.0 5.0 61 61
- 0.588 4 0 cbr 1000 ------- 1 4.0 5.0 61 61
r 0.594667 1 5 cbr 1000 ------- 1 4.0 5.0 55 55
r 0.595333 0 1 cbr 1000 ------- 1 4.0 5.0 57 57
+ 0.595333 1 5 cbr 1000 ------- 1 4.0 5.0 57 57
- 0.595333 1 5 cbr 1000 ------- 1 4.0 5.0 57 57
r 0.595333 4 0 cbr 1000 ------- 1 4.0 5.0 60 60
+ 0.595333 0 1 cbr 1000 ------- 1 4.0 5.0 60 60
- 0.595333 0 1 cbr 1000 ------- 1 4.0 5.0 60 60
+ 0.596 4 0 cbr 1000 ------- 1 4.0 5.0 62 62
- 0.596 4 0 cbr 1000 ------- 1 4.0 5.0 62 62
r 0.602667 1 5 cbr 1000 ------- 1 4.0 5.0 56 56
r 0.603333 0 1 cbr 1000 ------- 1 4.0 5.0 58 58
+ 0.603333 1 5 cbr 1000 ------- 1 4.0 5.0 58 58
- 0.603333 1 5 cbr 1000 ------- 1 4.0 5.0 58 58
r 0.603333 4 0 cbr 1000 ------- 1 4.0 5.0 61 61
+ 0.603333 0 1 cbr 1000 ------- 1 4.0 5.0 61 61
- 0.603333 0 1 cbr 1000 ------- 1 4.0 5.0 61 61
+ 0.604 4 0 cbr 1000 ------- 1 4.0 5.0 63 63
- 0.604 4 0 cbr 1000 ------- 1 4.0 5.0 63 63
r 0.610667 1 5 cbr 1000 ------- 1 4.0 5.0 57 57
r 0.611333 0 1 cbr 1000 ------- 1 4.0 5.0 59 59
+ 0.611333 1 5 cbr 1000 ------- 1 4.0 5.0 59 59
- 0.611333 1 5 cbr 1000 ------- 1 4.0 5.0 59 59
r 0.611333 4 0 cbr 1000 ------- 1 4.0 5.0 62 62
+ 0.611333 0 1 cbr 1000 ------- 1 4.0 5.0 62 62
- 0.611333 0 1 cbr 1000 ------- 1 4.0 5.0 62 62
+ 0.612 4 0 cbr 1000 ------- 1 4.0 5.0 64 64
- 0.612 4 0 cbr 1000 ------- 1 4.0 5.0 64 64
r 0.618667 1 5 cbr 1000 ------- 1 4.0 5.0 58 58
r 0.619333 0 1 cbr 1000 ------- 1 4.0 5.0 60 60
+ 0.619333 1 5 cbr 1000 ------- 1 4.0 5.0 60 60
- 0.619333 1 5 cbr 1000 ------- 1 4.0 5.0 60 60
r 0.619333 4 0 cbr 1000 ------- 1 4.0 5.0 63 63
+ 0.619333 0 1 cbr 1000 ------- 1 4.0 5.0 63 63
- 0.619333 0 1 cbr 1000 ------- 1 4.0 5.0 63 63
+ 0.62 4 0 cbr 1000 ------- 1 4.0 5.0 65 65
- 0.62 4 0 cbr 1000 ------- 1 4.0 5.0 65 65
r 0.626667 1 5 cbr 1000 ------- 1 4.0 5.0 59 59
r 0.627333 0 1 cbr 1000 ------- 1 4.0 5.0 61 61
+ 0.627333 1 5 cbr 1000 ------- 1 4.0 5.0 61 61
- 0.627333 1 5 cbr 1000 ------- 1 4.0 5.0 61 61
r 0.627333 4 0 cbr 1000 ------- 1 4.0 5.0 64 64
+ 0.627333 0 1 cbr 1000 ------- 1 4.0 5.0 64 64
- 0.627333 0 1 cbr 1000 ------- 1 4.0 5.0 64 64
+ 0.628 4 0 cbr 1000 ------- 1 4.0 5.0 66 66
- 0.628 4 0 cbr 1000 ------- 1 4.0 5.0 66 66
r 0.634667 1 5 cbr 1000 ------- 1 4.0 5.0 60 60
r 0.635333 0 1 cbr 1000 ------- 1 4.0 5.0 62 62
+ 0.635333 1 5 cbr 1000 ------- 1 4.0 5.0 62 62
- 0.635333 1 5 cbr 1000 ------- 1 4.0 5.0 62 62
r 0.635333 4 0 cbr 1000 ------- 1 4.0 5.0 65 65
+ 0.635333 0 1 cbr 1000 ------- 1 4.0 5.0 65 65
- 0.635333 0 1 cbr 1000 ------- 1 4.0 5.0 65 65
+ 0.636 4 0 cbr 1000 ------- 1 4.0 5.0 67 67
- 0.636 4 0 cbr 1000 ------- 1 4.0 5.0 67 67
r 0.642667 1 5 cbr 1000 ------- 1 4.0 5.0 61 61
r 0.643333 0 1 cbr 1000 ------- 1 4.0 5.0 63 63
+ 0.643333 1 5 cbr 1000 ------- 1 4.0 5.0 63 63
- 0.643333 1 5 cbr 1000 ------- 1 4.0 5.0 63 63
r 0.643333 4 0 cbr 1000 ------- 1 4.0 5.0 66 66
+ 0.643333 0 1 cbr 1000 ------- 1 4.0 5.0 66 66
- 0.643333 0 1 cbr 1000 ------- 1 4.0 5.0 66 66
+ 0.644 4 0 cbr 1000 ------- 1 4.0 5.0 68 68
- 0.644 4 0 cbr 1000 ------- 1 4.0 5.0 68 68
r 0.650667 1 5 cbr 1000 ------- 1 4.0 5.0 62 62
r 0.651333 0 1 cbr 1000 ------- 1 4.0 5.0 64 64
+ 0.651333 1 5 cbr 1000 ------- 1 4.0 5.0 64 64
- 0.651333 1 5 cbr 1000 ------- 1 4.0 5.0 64 64
r 0.651333 4 0 cbr 1000 ------- 1 4.0 5.0 67 67
+ 0.651333 0 1 cbr 1000 ------- 1 4.0 5.0 67 67
- 0.651333 0 1 cbr 1000 ------- 1 4.0 5.0 67 67
+ 0.652 4 0 cbr 1000 ------- 1 4.0 5.0 69 69
- 0.652 4 0 cbr 1000 ------- 1 4.0 5.0 69 69
r 0.658667 1 5 cbr 1000 ------- 1 4.0 5.0 63 63
r 0.659333 0 1 cbr 1000 ------- 1 4.0 5.0 65 65
+ 0.659333 1 5 cbr 1000 ------- 1 4.0 5.0 65 65
- 0.659333 1 5 cbr 1000 ------- 1 4.0 5.0 65 65
r 0.659333 4 0 cbr 1000 ------- 1 4.0 5.0 68 68
+ 0.659333 0 1 cbr 1000 ------- 1 4.0 5.0 68 68
- 0.659333 0 1 cbr 1000 ------- 1 4.0 5.0 68 68
+ 0.66 4 0 cbr 1000 ------- 1 4.0 5.0 70 70
- 0.66 4 0 cbr 1000 ------- 1 4.0 5.0 70 70
r 0.666667 1 5 cbr 1000 ------- 1 4.0 5.0 64 64
r 0.667333 0 1 cbr 1000 ------- 1 4.0 5.0 66 66
+ 0.667333 1 5 cbr 1000 ------- 1 4.0 5.0 66 66
- 0.667333 1 5 cbr 1000 ------- 1 4.0 5.0 66 66
r 0.667333 4 0 cbr 1000 ------- 1 4.0 5.0 69 69
+ 0.667333 0 1 cbr 1000 ------- 1 4.0 5.0 69 69
- 0.667333 0 1 cbr 1000 ------- 1 4.0 5.0 69 69
+ 0.668 4 0 cbr 1000 ------- 1 4.0 5.0 71 71
- 0.668 4 0 cbr 1000 ------- 1 4.0 5.0 71 71
r 0.674667 1 5 cbr 1000 ------- 1 4.0 5.0 65 65
r 0.675333 0 1 cbr 1000 ------- 1 4.0 5.0 67 67
+ 0.675333 1 5 cbr 1000 ------- 1 4.0 5.0 67 67
- 0.675333 1 5 cbr 1000 ------- 1 4.0 5.0 67 67
r 0.675333 4 0 cbr 1000 ------- 1 4.0 5.0 70 70
+ 0.675333 0 1 cbr 1000 ------- 1 4.0 5.0 70 70
- 0.675333 0 1 cbr 1000 ------- 1 4.0 5.0 70 70
+ 0.676 4 0 cbr 1000 ------- 1 4.0 5.0 72 72
- 0.676 4 0 cbr 1000 ------- 1 4.0 5.0 72 72
r 0.682667 1 5 cbr 1000 ------- 1 4.0 5.0 66 66
r 0.683333 0 1 cbr 1000 ------- 1 4.0 5.0 68 68
+ 0.683333 1 5 cbr 1000 ------- 1 4.0 5.0 68 68
- 0.683333 1 5 cbr 1000 ------- 1 4.0 5.0 68 68
r 0.683333 4 0 cbr 1000 ------- 1 4.0 5.0 71 71
+ 0.683333 0 1 cbr 1000 ------- 1 4.0 5.0 71 71
- 0.683333 0 1 cbr 1000 ------- 1 4.0 5.0 71 71
+ 0.684 4 0 cbr 1000 ------- 1 4.0 5.0 73 73
- 0.684 4 0 cbr 1000 ------- 1 4.0 5.0 73 73